version 2
run config4-0-20251024-17:09:42-34415
attr configname config4
attr datetime 20251024-17:09:42
attr experiment config4
attr inifile omnetpp.ini
attr iterationvars ""
attr iterationvars2 $repetition=0
attr measurement ""
attr network BurstifierTest
attr processid 34415
attr repetition 0
attr replication #0
attr resultdir results
attr runnumber 0
attr seedset 0

vector 1  BurstifierTest.generator  sentPk:vector(packetBytes)  ETV
attr interpolationmode  none
attr source  sentPk
attr title  "packets sent, vector(packetBytes)"
vector 4  BurstifierTest.burstifier  burstifierInPacketSize  ETV
vector 5  BurstifierTest.burstifier  avgPacketTime  ETV
vector 3  BurstifierTest.sink  rcvdPk:vector(packetBytes)  ETV
attr interpolationmode  none
attr source  rcvdPk
attr title  "packets received, vector(packetBytes)"
1	2	1	100
1	5	1.01	100
1	8	1.02	100
1	12	1.03	100
1	15	1.04	100
1	18	1.05	100
1	22	1.06	100
1	25	1.07	100
1	28	1.08	100
1	32	1.09	100
1	35	1.1	100
1	38	1.11	100
1	42	1.12	100
1	45	1.13	100
1	48	1.14	100
1	52	1.15	100
1	55	1.16	100
1	58	1.17	100
1	62	1.18	100
1	65	1.19	100
1	68	1.2	100
1	72	1.21	100
1	75	1.22	100
1	78	1.23	100
1	82	1.24	100
1	85	1.25	100
1	88	1.26	100
3	11	1.02	3750
3	21	1.05	3750
3	31	1.08	3750
3	41	1.11	3750
3	51	1.14	3750
3	61	1.17	3750
3	71	1.2	3750
3	81	1.23	3750
4	4	1	100
4	7	1.01	100
4	10	1.02	100
4	14	1.03	100
4	17	1.04	100
4	20	1.05	100
4	24	1.06	100
4	27	1.07	100
4	30	1.08	100
4	34	1.09	100
4	37	1.1	100
4	40	1.11	100
4	44	1.12	100
4	47	1.13	100
4	50	1.14	100
4	54	1.15	100
4	57	1.16	100
4	60	1.17	100
4	64	1.18	100
4	67	1.19	100
4	70	1.2	100
4	74	1.21	100
4	77	1.22	100
4	80	1.23	100
4	84	1.24	100
4	87	1.25	100
4	90	1.26	100
5	10	1.02	0.01
5	20	1.05	0.01
5	30	1.08	0.01
5	40	1.11	0.01
5	50	1.14	0.01
5	60	1.17	0.01
5	70	1.2	0.01
5	80	1.23	0.01
5	90	1.26	0.01
