version 2
run config3-0-20251015-16:19:59-56903
attr configname config3
attr datetime 20251015-16:19:59
attr experiment config3
attr inifile omnetpp.ini
attr iterationvars ""
attr iterationvars2 $repetition=0
attr measurement ""
attr network BurstifierTest
attr processid 56903
attr repetition 0
attr replication #0
attr resultdir results
attr runnumber 0
attr seedset 0

vector 1  BurstifierTest.generator  sentPk:vector(packetBytes)  ETV
attr interpolationmode  none
attr source  sentPk
attr title  "packets sent, vector(packetBytes)"
vector 4  BurstifierTest.burstifier  burstifierInPacketSize  ETV
vector 5  BurstifierTest.burstifier  avgPacketTime  ETV
vector 3  BurstifierTest.sink  rcvdPk:vector(packetBytes)  ETV
attr interpolationmode  none
attr source  rcvdPk
attr title  "packets received, vector(packetBytes)"
1	2	0	1000
1	5	0.01	1000
1	8	0.02	1000
1	11	0.03	1000
1	15	0.04	1000
1	18	0.05	1000
1	21	0.06	1000
1	25	0.07	1000
1	28	0.08	1000
1	31	0.09	1000
1	35	0.1	1000
1	38	0.11	1000
1	41	0.12	1000
1	45	0.13	1000
1	48	0.14	1000
1	51	0.15	1000
1	55	0.16	1000
1	58	0.17	1000
1	61	0.18	1000
1	65	0.19	1000
1	68	0.2	1000
1	71	0.21	1000
1	75	0.22	1000
1	78	0.23	1000
1	81	0.24	1000
1	85	0.25	1000
1	88	0.26	1000
1	91	0.27	1000
1	95	0.28	1000
1	98	0.29	1000
1	101	0.3	1000
1	105	0.31	1000
1	108	0.32	1000
1	111	0.33	1000
1	115	0.34	1000
1	118	0.35	1000
1	121	0.36	1000
1	125	0.37	1000
1	128	0.38	1000
1	131	0.39	1000
1	135	0.4	1000
1	138	0.41	1000
1	141	0.42	1000
1	145	0.43	1000
1	148	0.44	1000
1	151	0.45	1000
1	155	0.46	1000
1	158	0.47	1000
1	161	0.48	1000
1	165	0.49	1000
1	168	0.5	1000
1	171	0.51	1000
1	175	0.52	1000
1	178	0.53	1000
1	181	0.54	1000
1	185	0.55	1000
1	188	0.56	1000
1	191	0.57	1000
1	195	0.58	1000
1	198	0.59	1000
1	201	0.6	1000
1	205	0.61	1000
1	208	0.62	1000
1	211	0.63	1000
3	14	0.03	3011
3	24	0.06	3011
3	34	0.09	3011
3	44	0.12	3011
3	54	0.15	3011
3	64	0.18	3011
3	74	0.21	3011
3	84	0.24	3011
3	94	0.27	3011
3	104	0.3	3011
3	114	0.33	3011
3	124	0.36	3011
3	134	0.39	3011
3	144	0.42	3011
3	154	0.45	3011
3	164	0.48	3011
3	174	0.51	3011
3	184	0.54	3011
3	194	0.57	3011
3	204	0.6	3011
4	4	0	1000
4	7	0.01	1000
4	10	0.02	1000
4	13	0.03	1000
4	17	0.04	1000
4	20	0.05	1000
4	23	0.06	1000
4	27	0.07	1000
4	30	0.08	1000
4	33	0.09	1000
4	37	0.1	1000
4	40	0.11	1000
4	43	0.12	1000
4	47	0.13	1000
4	50	0.14	1000
4	53	0.15	1000
4	57	0.16	1000
4	60	0.17	1000
4	63	0.18	1000
4	67	0.19	1000
4	70	0.2	1000
4	73	0.21	1000
4	77	0.22	1000
4	80	0.23	1000
4	83	0.24	1000
4	87	0.25	1000
4	90	0.26	1000
4	93	0.27	1000
4	97	0.28	1000
4	100	0.29	1000
4	103	0.3	1000
4	107	0.31	1000
4	110	0.32	1000
4	113	0.33	1000
4	117	0.34	1000
4	120	0.35	1000
4	123	0.36	1000
4	127	0.37	1000
4	130	0.38	1000
4	133	0.39	1000
4	137	0.4	1000
4	140	0.41	1000
4	143	0.42	1000
4	147	0.43	1000
4	150	0.44	1000
4	153	0.45	1000
4	157	0.46	1000
4	160	0.47	1000
4	163	0.48	1000
4	167	0.49	1000
4	170	0.5	1000
4	173	0.51	1000
4	177	0.52	1000
4	180	0.53	1000
4	183	0.54	1000
4	187	0.55	1000
4	190	0.56	1000
4	193	0.57	1000
4	197	0.58	1000
4	200	0.59	1000
4	203	0.6	1000
4	207	0.61	1000
4	210	0.62	1000
4	213	0.63	1000
5	13	0.03	0.02
5	23	0.06	0.02
5	33	0.09	0.02
5	43	0.12	0.02
5	53	0.15	0.02
5	63	0.18	0.02
5	73	0.21	0.02
5	83	0.24	0.02
5	93	0.27	0.02
5	103	0.3	0.02
5	113	0.33	0.02
5	123	0.36	0.02
5	133	0.39	0.02
5	143	0.42	0.02
5	153	0.45	0.02
5	163	0.48	0.02
5	173	0.51	0.02
5	183	0.54	0.02
5	193	0.57	0.02
5	203	0.6	0.02
5	213	0.63	0.02
